# vtk DataFile Version 3.0
Triangulation generated with deal.II
ASCII
DATASET UNSTRUCTURED_GRID
POINTS 256 double
0.898798 0.50979 0
0.895217 0.519416 0
0.889341 0.52872 0
0.881302 0.537555 0
0.871282 0.545793 0
0.859506 0.553328 0
0.846237 0.560078 0
0.831769 0.565993 0
0.816418 0.571054 0
0.800517 0.575276 0
0.784404 0.578705 0
0.768413 0.581422 0
0.75287 0.583537 0
0.738079 0.585186 0
0.72432 0.58653 0
0.711836 0.587745 0
0.700833 0.589023 0
0.691472 0.59056 0
0.683866 0.592551 0
0.678079 0.595185 0
0.674122 0.598639 0
0.671959 0.603068 0
0.671503 0.608603 0
0.672623 0.615343 0
0.675149 0.623354 0
0.678873 0.632662 0
0.683562 0.643253 0
0.688957 0.655073 0
0.694788 0.668025 0
0.700777 0.681973 0
0.706647 0.696745 0
0.712132 0.712132 0
0.71698 0.727901 0
0.720962 0.743794 0
0.723879 0.759538 0
0.725563 0.774849 0
0.725886 0.789446 0
0.724758 0.803051 0
0.722131 0.815402 0
0.717999 0.826259 0
0.712396 0.83541 0
0.705394 0.842678 0
0.6971 0.84793 0
0.687653 0.851074 0
0.677216 0.852068 0
0.665974 0.850922 0
0.654122 0.847693 0
0.641865 0.842492 0
0.629407 0.835476 0
0.616948 0.826847 0
0.604672 0.816847 0
0.592749 0.805751 0
0.581323 0.793862 0
0.570512 0.781501 0
0.560407 0.769003 0
0.551061 0.756703 0
0.542499 0.74493 0
0.534711 0.734 0
0.527653 0.724206 0
0.521255 0.715809 0
0.515419 0.709033 0
0.510025 0.70406 0
0.504935 0.701022 0
0.5 0.7 0
0.495065 0.701022 0
0.489975 0.70406 0
0.484581 0.709033 0
0.478745 0.715809 0
0.472347 0.724206 0
0.465289 0.734 0
0.457501 0.74493 0
0.448939 0.756703 0
0.439593 0.769003 0
0.429488 0.781501 0
0.418677 0.793862 0
0.407251 0.805751 0
0.395328 0.816847 0
0.383052 0.826847 0
0.370593 0.835476 0
0.358135 0.842492 0
0.345878 0.847693 0
0.334026 0.850922 0
0.322784 0.852068 0
0.312347 0.851074 0
0.3029 0.84793 0
0.294606 0.842678 0
0.287604 0.83541 0
0.282001 0.826259 0
0.277869 0.815402 0
0.275242 0.803051 0
0.274114 0.789446 0
0.274437 0.774849 0
0.276121 0.759538 0
0.279038 0.743794 0
0.28302 0.727901 0
0.287868 0.712132 0
0.293353 0.696745 0
0.299223 0.681973 0
0.305212 0.668025 0
0.311043 0.655073 0
0.316438 0.643253 0
0.321127 0.632662 0
0.324851 0.623354 0
0.327377 0.615343 0
0.328497 0.608603 0
0.328041 0.603068 0
0.325878 0.598639 0
0.321921 0.595185 0
0.316134 0.592551 0
0.308528 0.59056 0
0.299167 0.589023 0
0.288164 0.587745 0
0.27568 0.58653 0
0.261921 0.585186 0
0.24713 0.583537 0
0.231587 0.581422 0
0.215596 0.578705 0
0.199483 0.575276 0
0.183582 0.571054 0
0.168231 0.565993 0
0.153763 0.560078 0
0.140494 0.553328 0
0.128718 0.545793 0
0.118698 0.537555 0
0.110659 0.52872 0
0.104783 0.519416 0
0.101202 0.50979 0
0.1 0.5 0
0.101202 0.49021 0
0.104783 0.480584 0
0.110659 0.47128 0
0.118698 0.462445 0
0.128718 0.454207 0
0.140494 0.446672 0
0.153763 0.439922 0
0.168231 0.434007 0
0.183582 0.428946 0
0.199483 0.424724 0
0.215596 0.421295 0
0.231587 0.418578 0
0.24713 0.416463 0
0.261921 0.414814 0
0.27568 0.41347 0
0.288164 0.412255 0
0.299167 0.410977 0
0.308528 0.40944 0
0.316134 0.407449 0
0.321921 0.404815 0
0.325878 0.401361 0
0.328041 0.396932 0
0.328497 0.391397 0
0.327377 0.384657 0
0.324851 0.376646 0
0.321127 0.367338 0
0.316438 0.356747 0
0.311043 0.344927 0
0.305212 0.331975 0
0.299223 0.318027 0
0.293353 0.303255 0
0.287868 0.287868 0
0.28302 0.272099 0
0.279038 0.256206 0
0.276121 0.240462 0
0.274437 0.225151 0
0.274114 0.210554 0
0.275242 0.196949 0
0.277869 0.184598 0
0.282001 0.173741 0
0.287604 0.16459 0
0.294606 0.157322 0
0.3029 0.15207 0
0.312347 0.148926 0
0.322784 0.147932 0
0.334026 0.149078 0
0.345878 0.152307 0
0.358135 0.157508 0
0.370593 0.164524 0
0.383052 0.173153 0
0.395328 0.183153 0
0.407251 0.194249 0
0.418677 0.206138 0
0.429488 0.218499 0
0.439593 0.230997 0
0.448939 0.243297 0
0.457501 0.25507 0
0.465289 0.266 0
0.472347 0.275794 0
0.478745 0.284191 0
0.484581 0.290967 0
0.489975 0.29594 0
0.495065 0.298978 0
0.5 0.3 0
0.504935 0.298978 0
0.510025 0.29594 0
0.515419 0.290967 0
0.521255 0.284191 0
0.527653 0.275794 0
0.534711 0.266 0
0.542499 0.25507 0
0.551061 0.243297 0
0.560407 0.230997 0
0.570512 0.218499 0
0.581323 0.206138 0
0.592749 0.194249 0
0.604672 0.183153 0
0.616948 0.173153 0
0.629407 0.164524 0
0.641865 0.157508 0
0.654122 0.152307 0
0.665974 0.149078 0
0.677216 0.147932 0
0.687653 0.148926 0
0.6971 0.15207 0
0.705394 0.157322 0
0.712396 0.16459 0
0.717999 0.173741 0
0.722131 0.184598 0
0.724758 0.196949 0
0.725886 0.210554 0
0.725563 0.225151 0
0.723879 0.240462 0
0.720962 0.256206 0
0.71698 0.272099 0
0.712132 0.287868 0
0.706647 0.303255 0
0.700777 0.318027 0
0.694788 0.331975 0
0.688957 0.344927 0
0.683562 0.356747 0
0.678873 0.367338 0
0.675149 0.376646 0
0.672623 0.384657 0
0.671503 0.391397 0
0.671959 0.396932 0
0.674122 0.401361 0
0.678079 0.404815 0
0.683866 0.407449 0
0.691472 0.40944 0
0.700833 0.410977 0
0.711836 0.412255 0
0.72432 0.41347 0
0.738079 0.414814 0
0.75287 0.416463 0
0.768413 0.418578 0
0.784404 0.421295 0
0.800517 0.424724 0
0.816418 0.428946 0
0.831769 0.434007 0
0.846237 0.439922 0
0.859506 0.446672 0
0.871282 0.454207 0
0.881302 0.462445 0
0.889341 0.47128 0
0.895217 0.480584 0
0.898798 0.49021 0
0.9 0.5 0

CELLS 256 768
2 0 1
2 1 2
2 2 3
2 3 4
2 4 5
2 5 6
2 6 7
2 7 8
2 8 9
2 9 10
2 10 11
2 11 12
2 12 13
2 13 14
2 14 15
2 15 16
2 16 17
2 17 18
2 18 19
2 19 20
2 20 21
2 21 22
2 22 23
2 23 24
2 24 25
2 25 26
2 26 27
2 27 28
2 28 29
2 29 30
2 30 31
2 31 32
2 32 33
2 33 34
2 34 35
2 35 36
2 36 37
2 37 38
2 38 39
2 39 40
2 40 41
2 41 42
2 42 43
2 43 44
2 44 45
2 45 46
2 46 47
2 47 48
2 48 49
2 49 50
2 50 51
2 51 52
2 52 53
2 53 54
2 54 55
2 55 56
2 56 57
2 57 58
2 58 59
2 59 60
2 60 61
2 61 62
2 62 63
2 63 64
2 64 65
2 65 66
2 66 67
2 67 68
2 68 69
2 69 70
2 70 71
2 71 72
2 72 73
2 73 74
2 74 75
2 75 76
2 76 77
2 77 78
2 78 79
2 79 80
2 80 81
2 81 82
2 82 83
2 83 84
2 84 85
2 85 86
2 86 87
2 87 88
2 88 89
2 89 90
2 90 91
2 91 92
2 92 93
2 93 94
2 94 95
2 95 96
2 96 97
2 97 98
2 98 99
2 99 100
2 100 101
2 101 102
2 102 103
2 103 104
2 104 105
2 105 106
2 106 107
2 107 108
2 108 109
2 109 110
2 110 111
2 111 112
2 112 113
2 113 114
2 114 115
2 115 116
2 116 117
2 117 118
2 118 119
2 119 120
2 120 121
2 121 122
2 122 123
2 123 124
2 124 125
2 125 126
2 126 127
2 127 128
2 128 129
2 129 130
2 130 131
2 131 132
2 132 133
2 133 134
2 134 135
2 135 136
2 136 137
2 137 138
2 138 139
2 139 140
2 140 141
2 141 142
2 142 143
2 143 144
2 144 145
2 145 146
2 146 147
2 147 148
2 148 149
2 149 150
2 150 151
2 151 152
2 152 153
2 153 154
2 154 155
2 155 156
2 156 157
2 157 158
2 158 159
2 159 160
2 160 161
2 161 162
2 162 163
2 163 164
2 164 165
2 165 166
2 166 167
2 167 168
2 168 169
2 169 170
2 170 171
2 171 172
2 172 173
2 173 174
2 174 175
2 175 176
2 176 177
2 177 178
2 178 179
2 179 180
2 180 181
2 181 182
2 182 183
2 183 184
2 184 185
2 185 186
2 186 187
2 187 188
2 188 189
2 189 190
2 190 191
2 191 192
2 192 193
2 193 194
2 194 195
2 195 196
2 196 197
2 197 198
2 198 199
2 199 200
2 200 201
2 201 202
2 202 203
2 203 204
2 204 205
2 205 206
2 206 207
2 207 208
2 208 209
2 209 210
2 210 211
2 211 212
2 212 213
2 213 214
2 214 215
2 215 216
2 216 217
2 217 218
2 218 219
2 219 220
2 220 221
2 221 222
2 222 223
2 223 224
2 224 225
2 225 226
2 226 227
2 227 228
2 228 229
2 229 230
2 230 231
2 231 232
2 232 233
2 233 234
2 234 235
2 235 236
2 236 237
2 237 238
2 238 239
2 239 240
2 240 241
2 241 242
2 242 243
2 243 244
2 244 245
2 245 246
2 246 247
2 247 248
2 248 249
2 249 250
2 250 251
2 251 252
2 252 253
2 253 254
2 254 255
2 255 0

CELL_TYPES 256
3 3 3 3 3 3 3 3 3 3 3 3 3 3 3 3 3 3 3 3 3 3 3 3 3 3 3 3 3 3 3 3 3 3 3 3 3 3 3 3 3 3 3 3 3 3 3 3 3 3 3 3 3 3 3 3 3 3 3 3 3 3 3 3 3 3 3 3 3 3 3 3 3 3 3 3 3 3 3 3 3 3 3 3 3 3 3 3 3 3 3 3 3 3 3 3 3 3 3 3 3 3 3 3 3 3 3 3 3 3 3 3 3 3 3 3 3 3 3 3 3 3 3 3 3 3 3 3 3 3 3 3 3 3 3 3 3 3 3 3 3 3 3 3 3 3 3 3 3 3 3 3 3 3 3 3 3 3 3 3 3 3 3 3 3 3 3 3 3 3 3 3 3 3 3 3 3 3 3 3 3 3 3 3 3 3 3 3 3 3 3 3 3 3 3 3 3 3 3 3 3 3 3 3 3 3 3 3 3 3 3 3 3 3 3 3 3 3 3 3 3 3 3 3 3 3 3 3 3 3 3 3 3 3 3 3 3 3 3 3 3 3 3 3 3 3 3 3 3 3 3 3 3 3 3 3 



CELL_DATA 256
SCALARS MaterialID int 1
LOOKUP_TABLE default
0 0 0 0 0 0 0 0 0 0 0 0 0 0 0 0 0 0 0 0 0 0 0 0 0 0 0 0 0 0 0 0 0 0 0 0 0 0 0 0 0 0 0 0 0 0 0 0 0 0 0 0 0 0 0 0 0 0 0 0 0 0 0 0 0 0 0 0 0 0 0 0 0 0 0 0 0 0 0 0 0 0 0 0 0 0 0 0 0 0 0 0 0 0 0 0 0 0 0 0 0 0 0 0 0 0 0 0 0 0 0 0 0 0 0 0 0 0 0 0 0 0 0 0 0 0 0 0 0 0 0 0 0 0 0 0 0 0 0 0 0 0 0 0 0 0 0 0 0 0 0 0 0 0 0 0 0 0 0 0 0 0 0 0 0 0 0 0 0 0 0 0 0 0 0 0 0 0 0 0 0 0 0 0 0 0 0 0 0 0 0 0 0 0 0 0 0 0 0 0 0 0 0 0 0 0 0 0 0 0 0 0 0 0 0 0 0 0 0 0 0 0 0 0 0 0 0 0 0 0 0 0 0 0 0 0 0 0 0 0 0 0 0 0 0 0 0 0 0 0 0 0 0 0 0 0 



SCALARS ManifoldID int 1
LOOKUP_TABLE default
-1 -1 -1 -1 -1 -1 -1 -1 -1 -1 -1 -1 -1 -1 -1 -1 -1 -1 -1 -1 -1 -1 -1 -1 -1 -1 -1 -1 -1 -1 -1 -1 -1 -1 -1 -1 -1 -1 -1 -1 -1 -1 -1 -1 -1 -1 -1 -1 -1 -1 -1 -1 -1 -1 -1 -1 -1 -1 -1 -1 -1 -1 -1 -1 -1 -1 -1 -1 -1 -1 -1 -1 -1 -1 -1 -1 -1 -1 -1 -1 -1 -1 -1 -1 -1 -1 -1 -1 -1 -1 -1 -1 -1 -1 -1 -1 -1 -1 -1 -1 -1 -1 -1 -1 -1 -1 -1 -1 -1 -1 -1 -1 -1 -1 -1 -1 -1 -1 -1 -1 -1 -1 -1 -1 -1 -1 -1 -1 -1 -1 -1 -1 -1 -1 -1 -1 -1 -1 -1 -1 -1 -1 -1 -1 -1 -1 -1 -1 -1 -1 -1 -1 -1 -1 -1 -1 -1 -1 -1 -1 -1 -1 -1 -1 -1 -1 -1 -1 -1 -1 -1 -1 -1 -1 -1 -1 -1 -1 -1 -1 -1 -1 -1 -1 -1 -1 -1 -1 -1 -1 -1 -1 -1 -1 -1 -1 -1 -1 -1 -1 -1 -1 -1 -1 -1 -1 -1 -1 -1 -1 -1 -1 -1 -1 -1 -1 -1 -1 -1 -1 -1 -1 -1 -1 -1 -1 -1 -1 -1 -1 -1 -1 -1 -1 -1 -1 -1 -1 -1 -1 -1 -1 -1 -1 -1 -1 -1 -1 -1 -1 -1 -1 -1 -1 -1 -1 


